ITEM: TIMESTEP
0
ITEM: NUMBER OF ATOMS
6
ITEM: BOX BOUNDS pp pp pp
0 3.89297639
0 3.89297639
0 5.5055
ITEM: ATOMS id type xs ys zs
1   1   0.25  0.25  0.25
2   2   0.25  0.75  0.499
3   2   0.25  0.75  0.000001
4   1   0.75  0.75  0.75
5   2   0.75  0.25  0.501
6   2   0.75  0.25  0.999999
