 # File generated with atomsk by leleslx on 2017-03-04 20:53:13
 
        6000  atoms
           2  atom types
 
      0.00000000      38.92976390  xlo xhi
      0.00000000      38.92976390  ylo yhi
      0.00000000      55.05500000  zlo zhi
 
Atoms
 
         1    1        0.97324410       0.97324410       1.37637500
         2    2        0.97324410       2.91973229       2.74724450
         3    2        0.97324410       2.91973229       0.00000551
         4    1        2.91973229       2.91973229       4.12912500
         5    2        2.91973229       0.97324410       2.75825550
         6    2        2.91973229       0.97324410       5.50549449
         7    1        4.86622049       0.97324410       1.37637500
         8    2        4.86622049       2.91973229       2.74724450
         9    2        4.86622049       2.91973229       0.00000551
        10    1        6.81270868       2.91973229       4.12912500
        11    2        6.81270868       0.97324410       2.75825550
        12    2        6.81270868       0.97324410       5.50549449
        13    1        8.75919688       0.97324410       1.37637500
        14    2        8.75919688       2.91973229       2.74724450
        15    2        8.75919688       2.91973229       0.00000551
        16    1       10.70568507       2.91973229       4.12912500
        17    2       10.70568507       0.97324410       2.75825550
        18    2       10.70568507       0.97324410       5.50549449
        19    1       12.65217327       0.97324410       1.37637500
        20    2       12.65217327       2.91973229       2.74724450
        21    2       12.65217327       2.91973229       0.00000551
        22    1       14.59866146       2.91973229       4.12912500
        23    2       14.59866146       0.97324410       2.75825550
        24    2       14.59866146       0.97324410       5.50549449
        25    1       16.54514966       0.97324410       1.37637500
        26    2       16.54514966       2.91973229       2.74724450
        27    2       16.54514966       2.91973229       0.00000551
        28    1       18.49163785       2.91973229       4.12912500
        29    2       18.49163785       0.97324410       2.75825550
        30    2       18.49163785       0.97324410       5.50549449
        31    1       20.43812605       0.97324410       1.37637500
        32    2       20.43812605       2.91973229       2.74724450
        33    2       20.43812605       2.91973229       0.00000551
        34    1       22.38461424       2.91973229       4.12912500
        35    2       22.38461424       0.97324410       2.75825550
        36    2       22.38461424       0.97324410       5.50549449
        37    1       24.33110244       0.97324410       1.37637500
        38    2       24.33110244       2.91973229       2.74724450
        39    2       24.33110244       2.91973229       0.00000551
        40    1       26.27759063       2.91973229       4.12912500
        41    2       26.27759063       0.97324410       2.75825550
        42    2       26.27759063       0.97324410       5.50549449
        43    1       28.22407883       0.97324410       1.37637500
        44    2       28.22407883       2.91973229       2.74724450
        45    2       28.22407883       2.91973229       0.00000551
        46    1       30.17056702       2.91973229       4.12912500
        47    2       30.17056702       0.97324410       2.75825550
        48    2       30.17056702       0.97324410       5.50549449
        49    1       32.11705522       0.97324410       1.37637500
        50    2       32.11705522       2.91973229       2.74724450
        51    2       32.11705522       2.91973229       0.00000551
        52    1       34.06354341       2.91973229       4.12912500
        53    2       34.06354341       0.97324410       2.75825550
        54    2       34.06354341       0.97324410       5.50549449
        55    1       36.01003161       0.97324410       1.37637500
        56    2       36.01003161       2.91973229       2.74724450
        57    2       36.01003161       2.91973229       0.00000551
        58    1       37.95651980       2.91973229       4.12912500
        59    2       37.95651980       0.97324410       2.75825550
        60    2       37.95651980       0.97324410       5.50549449
        61    1        0.97324410       4.86622049       1.37637500
        62    2        0.97324410       6.81270868       2.74724450
        63    2        0.97324410       6.81270868       0.00000551
        64    1        2.91973229       6.81270868       4.12912500
        65    2        2.91973229       4.86622049       2.75825550
        66    2        2.91973229       4.86622049       5.50549449
        67    1        4.86622049       4.86622049       1.37637500
        68    2        4.86622049       6.81270868       2.74724450
        69    2        4.86622049       6.81270868       0.00000551
        70    1        6.81270868       6.81270868       4.12912500
        71    2        6.81270868       4.86622049       2.75825550
        72    2        6.81270868       4.86622049       5.50549449
        73    1        8.75919688       4.86622049       1.37637500
        74    2        8.75919688       6.81270868       2.74724450
        75    2        8.75919688       6.81270868       0.00000551
        76    1       10.70568507       6.81270868       4.12912500
        77    2       10.70568507       4.86622049       2.75825550
        78    2       10.70568507       4.86622049       5.50549449
        79    1       12.65217327       4.86622049       1.37637500
        80    2       12.65217327       6.81270868       2.74724450
        81    2       12.65217327       6.81270868       0.00000551
        82    1       14.59866146       6.81270868       4.12912500
        83    2       14.59866146       4.86622049       2.75825550
        84    2       14.59866146       4.86622049       5.50549449
        85    1       16.54514966       4.86622049       1.37637500
        86    2       16.54514966       6.81270868       2.74724450
        87    2       16.54514966       6.81270868       0.00000551
        88    1       18.49163785       6.81270868       4.12912500
        89    2       18.49163785       4.86622049       2.75825550
        90    2       18.49163785       4.86622049       5.50549449
        91    1       20.43812605       4.86622049       1.37637500
        92    2       20.43812605       6.81270868       2.74724450
        93    2       20.43812605       6.81270868       0.00000551
        94    1       22.38461424       6.81270868       4.12912500
        95    2       22.38461424       4.86622049       2.75825550
        96    2       22.38461424       4.86622049       5.50549449
        97    1       24.33110244       4.86622049       1.37637500
        98    2       24.33110244       6.81270868       2.74724450
        99    2       24.33110244       6.81270868       0.00000551
       100    1       26.27759063       6.81270868       4.12912500
       101    2       26.27759063       4.86622049       2.75825550
       102    2       26.27759063       4.86622049       5.50549449
       103    1       28.22407883       4.86622049       1.37637500
       104    2       28.22407883       6.81270868       2.74724450
       105    2       28.22407883       6.81270868       0.00000551
       106    1       30.17056702       6.81270868       4.12912500
       107    2       30.17056702       4.86622049       2.75825550
       108    2       30.17056702       4.86622049       5.50549449
       109    1       32.11705522       4.86622049       1.37637500
       110    2       32.11705522       6.81270868       2.74724450
       111    2       32.11705522       6.81270868       0.00000551
       112    1       34.06354341       6.81270868       4.12912500
       113    2       34.06354341       4.86622049       2.75825550
       114    2       34.06354341       4.86622049       5.50549449
       115    1       36.01003161       4.86622049       1.37637500
       116    2       36.01003161       6.81270868       2.74724450
       117    2       36.01003161       6.81270868       0.00000551
       118    1       37.95651980       6.81270868       4.12912500
       119    2       37.95651980       4.86622049       2.75825550
       120    2       37.95651980       4.86622049       5.50549449
       121    1        0.97324410       8.75919688       1.37637500
       122    2        0.97324410      10.70568507       2.74724450
       123    2        0.97324410      10.70568507       0.00000551
       124    1        2.91973229      10.70568507       4.12912500
       125    2        2.91973229       8.75919688       2.75825550
       126    2        2.91973229       8.75919688       5.50549449
       127    1        4.86622049       8.75919688       1.37637500
       128    2        4.86622049      10.70568507       2.74724450
       129    2        4.86622049      10.70568507       0.00000551
       130    1        6.81270868      10.70568507       4.12912500
       131    2        6.81270868       8.75919688       2.75825550
       132    2        6.81270868       8.75919688       5.50549449
       133    1        8.75919688       8.75919688       1.37637500
       134    2        8.75919688      10.70568507       2.74724450
       135    2        8.75919688      10.70568507       0.00000551
       136    1       10.70568507      10.70568507       4.12912500
       137    2       10.70568507       8.75919688       2.75825550
       138    2       10.70568507       8.75919688       5.50549449
       139    1       12.65217327       8.75919688       1.37637500
       140    2       12.65217327      10.70568507       2.74724450
       141    2       12.65217327      10.70568507       0.00000551
       142    1       14.59866146      10.70568507       4.12912500
       143    2       14.59866146       8.75919688       2.75825550
       144    2       14.59866146       8.75919688       5.50549449
       145    1       16.54514966       8.75919688       1.37637500
       146    2       16.54514966      10.70568507       2.74724450
       147    2       16.54514966      10.70568507       0.00000551
       148    1       18.49163785      10.70568507       4.12912500
       149    2       18.49163785       8.75919688       2.75825550
       150    2       18.49163785       8.75919688       5.50549449
       151    1       20.43812605       8.75919688       1.37637500
       152    2       20.43812605      10.70568507       2.74724450
       153    2       20.43812605      10.70568507       0.00000551
       154    1       22.38461424      10.70568507       4.12912500
       155    2       22.38461424       8.75919688       2.75825550
       156    2       22.38461424       8.75919688       5.50549449
       157    1       24.33110244       8.75919688       1.37637500
       158    2       24.33110244      10.70568507       2.74724450
       159    2       24.33110244      10.70568507       0.00000551
       160    1       26.27759063      10.70568507       4.12912500
       161    2       26.27759063       8.75919688       2.75825550
       162    2       26.27759063       8.75919688       5.50549449
       163    1       28.22407883       8.75919688       1.37637500
       164    2       28.22407883      10.70568507       2.74724450
       165    2       28.22407883      10.70568507       0.00000551
       166    1       30.17056702      10.70568507       4.12912500
       167    2       30.17056702       8.75919688       2.75825550
       168    2       30.17056702       8.75919688       5.50549449
       169    1       32.11705522       8.75919688       1.37637500
       170    2       32.11705522      10.70568507       2.74724450
       171    2       32.11705522      10.70568507       0.00000551
       172    1       34.06354341      10.70568507       4.12912500
       173    2       34.06354341       8.75919688       2.75825550
       174    2       34.06354341       8.75919688       5.50549449
       175    1       36.01003161       8.75919688       1.37637500
       176    2       36.01003161      10.70568507       2.74724450
       177    2       36.01003161      10.70568507       0.00000551
       178    1       37.95651980      10.70568507       4.12912500
       179    2       37.95651980       8.75919688       2.75825550
       180    2       37.95651980       8.75919688       5.50549449
       181    1        0.97324410      12.65217327       1.37637500
       182    2        0.97324410      14.59866146       2.74724450
       183    2        0.97324410      14.59866146       0.00000551
       184    1        2.91973229      14.59866146       4.12912500
       185    2        2.91973229      12.65217327       2.75825550
       186    2        2.91973229      12.65217327       5.50549449
       187    1        4.86622049      12.65217327       1.37637500
       188    2        4.86622049      14.59866146       2.74724450
       189    2        4.86622049      14.59866146       0.00000551
       190    1        6.81270868      14.59866146       4.12912500
       191    2        6.81270868      12.65217327       2.75825550
       192    2        6.81270868      12.65217327       5.50549449
       193    1        8.75919688      12.65217327       1.37637500
       194    2        8.75919688      14.59866146       2.74724450
       195    2        8.75919688      14.59866146       0.00000551
       196    1       10.70568507      14.59866146       4.12912500
       197    2       10.70568507      12.65217327       2.75825550
       198    2       10.70568507      12.65217327       5.50549449
       199    1       12.65217327      12.65217327       1.37637500
       200    2       12.65217327      14.59866146       2.74724450
       201    2       12.65217327      14.59866146       0.00000551
       202    1       14.59866146      14.59866146       4.12912500
       203    2       14.59866146      12.65217327       2.75825550
       204    2       14.59866146      12.65217327       5.50549449
       205    1       16.54514966      12.65217327       1.37637500
       206    2       16.54514966      14.59866146       2.74724450
       207    2       16.54514966      14.59866146       0.00000551
       208    1       18.49163785      14.59866146       4.12912500
       209    2       18.49163785      12.65217327       2.75825550
       210    2       18.49163785      12.65217327       5.50549449
       211    1       20.43812605      12.65217327       1.37637500
       212    2       20.43812605      14.59866146       2.74724450
       213    2       20.43812605      14.59866146       0.00000551
       214    1       22.38461424      14.59866146       4.12912500
       215    2       22.38461424      12.65217327       2.75825550
       216    2       22.38461424      12.65217327       5.50549449
       217    1       24.33110244      12.65217327       1.37637500
       218    2       24.33110244      14.59866146       2.74724450
       219    2       24.33110244      14.59866146       0.00000551
       220    1       26.27759063      14.59866146       4.12912500
       221    2       26.27759063      12.65217327       2.75825550
       222    2       26.27759063      12.65217327       5.50549449
       223    1       28.22407883      12.65217327       1.37637500
       224    2       28.22407883      14.59866146       2.74724450
       225    2       28.22407883      14.59866146       0.00000551
       226    1       30.17056702      14.59866146       4.12912500
       227    2       30.17056702      12.65217327       2.75825550
       228    2       30.17056702      12.65217327       5.50549449
       229    1       32.11705522      12.65217327       1.37637500
       230    2       32.11705522      14.59866146       2.74724450
       231    2       32.11705522      14.59866146       0.00000551
       232    1       34.06354341      14.59866146       4.12912500
       233    2       34.06354341      12.65217327       2.75825550
       234    2       34.06354341      12.65217327       5.50549449
       235    1       36.01003161      12.65217327       1.37637500
       236    2       36.01003161      14.59866146       2.74724450
       237    2       36.01003161      14.59866146       0.00000551
       238    1       37.95651980      14.59866146       4.12912500
       239    2       37.95651980      12.65217327       2.75825550
       240    2       37.95651980      12.65217327       5.50549449
       241    1        0.97324410      16.54514966       1.37637500
       242    2        0.97324410      18.49163785       2.74724450
       243    2        0.97324410      18.49163785       0.00000551
       244    1        2.91973229      18.49163785       4.12912500
       245    2        2.91973229      16.54514966       2.75825550
       246    2        2.91973229      16.54514966       5.50549449
       247    1        4.86622049      16.54514966       1.37637500
       248    2        4.86622049      18.49163785       2.74724450
       249    2        4.86622049      18.49163785       0.00000551
       250    1        6.81270868      18.49163785       4.12912500
       251    2        6.81270868      16.54514966       2.75825550
       252    2        6.81270868      16.54514966       5.50549449
       253    1        8.75919688      16.54514966       1.37637500
       254    2        8.75919688      18.49163785       2.74724450
       255    2        8.75919688      18.49163785       0.00000551
       256    1       10.70568507      18.49163785       4.12912500
       257    2       10.70568507      16.54514966       2.75825550
       258    2       10.70568507      16.54514966       5.50549449
       259    1       12.65217327      16.54514966       1.37637500
       260    2       12.65217327      18.49163785       2.74724450
       261    2       12.65217327      18.49163785       0.00000551
       262    1       14.59866146      18.49163785       4.12912500
       263    2       14.59866146      16.54514966       2.75825550
       264    2       14.59866146      16.54514966       5.50549449
       265    1       16.54514966      16.54514966       1.37637500
       266    2       16.54514966      18.49163785       2.74724450
       267    2       16.54514966      18.49163785       0.00000551
       268    1       18.49163785      18.49163785       4.12912500
       269    2       18.49163785      16.54514966       2.75825550
       270    2       18.49163785      16.54514966       5.50549449
       271    1       20.43812605      16.54514966       1.37637500
       272    2       20.43812605      18.49163785       2.74724450
       273    2       20.43812605      18.49163785       0.00000551
       274    1       22.38461424      18.49163785       4.12912500
       275    2       22.38461424      16.54514966       2.75825550
       276    2       22.38461424      16.54514966       5.50549449
       277    1       24.33110244      16.54514966       1.37637500
       278    2       24.33110244      18.49163785       2.74724450
       279    2       24.33110244      18.49163785       0.00000551
       280    1       26.27759063      18.49163785       4.12912500
       281    2       26.27759063      16.54514966       2.75825550
       282    2       26.27759063      16.54514966       5.50549449
       283    1       28.22407883      16.54514966       1.37637500
       284    2       28.22407883      18.49163785       2.74724450
       285    2       28.22407883      18.49163785       0.00000551
       286    1       30.17056702      18.49163785       4.12912500
       287    2       30.17056702      16.54514966       2.75825550
       288    2       30.17056702      16.54514966       5.50549449
       289    1       32.11705522      16.54514966       1.37637500
       290    2       32.11705522      18.49163785       2.74724450
       291    2       32.11705522      18.49163785       0.00000551
       292    1       34.06354341      18.49163785       4.12912500
       293    2       34.06354341      16.54514966       2.75825550
       294    2       34.06354341      16.54514966       5.50549449
       295    1       36.01003161      16.54514966       1.37637500
       296    2       36.01003161      18.49163785       2.74724450
       297    2       36.01003161      18.49163785       0.00000551
       298    1       37.95651980      18.49163785       4.12912500
       299    2       37.95651980      16.54514966       2.75825550
       300    2       37.95651980      16.54514966       5.50549449
       301    1        0.97324410      20.43812605       1.37637500
       302    2        0.97324410      22.38461424       2.74724450
       303    2        0.97324410      22.38461424       0.00000551
       304    1        2.91973229      22.38461424       4.12912500
       305    2        2.91973229      20.43812605       2.75825550
       306    2        2.91973229      20.43812605       5.50549449
       307    1        4.86622049      20.43812605       1.37637500
       308    2        4.86622049      22.38461424       2.74724450
       309    2        4.86622049      22.38461424       0.00000551
       310    1        6.81270868      22.38461424       4.12912500
       311    2        6.81270868      20.43812605       2.75825550
       312    2        6.81270868      20.43812605       5.50549449
       313    1        8.75919688      20.43812605       1.37637500
       314    2        8.75919688      22.38461424       2.74724450
       315    2        8.75919688      22.38461424       0.00000551
       316    1       10.70568507      22.38461424       4.12912500
       317    2       10.70568507      20.43812605       2.75825550
       318    2       10.70568507      20.43812605       5.50549449
       319    1       12.65217327      20.43812605       1.37637500
       320    2       12.65217327      22.38461424       2.74724450
       321    2       12.65217327      22.38461424       0.00000551
       322    1       14.59866146      22.38461424       4.12912500
       323    2       14.59866146      20.43812605       2.75825550
       324    2       14.59866146      20.43812605       5.50549449
       325    1       16.54514966      20.43812605       1.37637500
       326    2       16.54514966      22.38461424       2.74724450
       327    2       16.54514966      22.38461424       0.00000551
       328    1       18.49163785      22.38461424       4.12912500
       329    2       18.49163785      20.43812605       2.75825550
       330    2       18.49163785      20.43812605       5.50549449
       331    1       20.43812605      20.43812605       1.37637500
       332    2       20.43812605      22.38461424       2.74724450
       333    2       20.43812605      22.38461424       0.00000551
       334    1       22.38461424      22.38461424       4.12912500
       335    2       22.38461424      20.43812605       2.75825550
       336    2       22.38461424      20.43812605       5.50549449
       337    1       24.33110244      20.43812605       1.37637500
       338    2       24.33110244      22.38461424       2.74724450
       339    2       24.33110244      22.38461424       0.00000551
       340    1       26.27759063      22.38461424       4.12912500
       341    2       26.27759063      20.43812605       2.75825550
       342    2       26.27759063      20.43812605       5.50549449
       343    1       28.22407883      20.43812605       1.37637500
       344    2       28.22407883      22.38461424       2.74724450
       345    2       28.22407883      22.38461424       0.00000551
       346    1       30.17056702      22.38461424       4.12912500
       347    2       30.17056702      20.43812605       2.75825550
       348    2       30.17056702      20.43812605       5.50549449
       349    1       32.11705522      20.43812605       1.37637500
       350    2       32.11705522      22.38461424       2.74724450
       351    2       32.11705522      22.38461424       0.00000551
       352    1       34.06354341      22.38461424       4.12912500
       353    2       34.06354341      20.43812605       2.75825550
       354    2       34.06354341      20.43812605       5.50549449
       355    1       36.01003161      20.43812605       1.37637500
       356    2       36.01003161      22.38461424       2.74724450
       357    2       36.01003161      22.38461424       0.00000551
       358    1       37.95651980      22.38461424       4.12912500
       359    2       37.95651980      20.43812605       2.75825550
       360    2       37.95651980      20.43812605       5.50549449
       361    1        0.97324410      24.33110244       1.37637500
       362    2        0.97324410      26.27759063       2.74724450
       363    2        0.97324410      26.27759063       0.00000551
       364    1        2.91973229      26.27759063       4.12912500
       365    2        2.91973229      24.33110244       2.75825550
       366    2        2.91973229      24.33110244       5.50549449
       367    1        4.86622049      24.33110244       1.37637500
       368    2        4.86622049      26.27759063       2.74724450
       369    2        4.86622049      26.27759063       0.00000551
       370    1        6.81270868      26.27759063       4.12912500
       371    2        6.81270868      24.33110244       2.75825550
       372    2        6.81270868      24.33110244       5.50549449
       373    1        8.75919688      24.33110244       1.37637500
       374    2        8.75919688      26.27759063       2.74724450
       375    2        8.75919688      26.27759063       0.00000551
       376    1       10.70568507      26.27759063       4.12912500
       377    2       10.70568507      24.33110244       2.75825550
       378    2       10.70568507      24.33110244       5.50549449
       379    1       12.65217327      24.33110244       1.37637500
       380    2       12.65217327      26.27759063       2.74724450
       381    2       12.65217327      26.27759063       0.00000551
       382    1       14.59866146      26.27759063       4.12912500
       383    2       14.59866146      24.33110244       2.75825550
       384    2       14.59866146      24.33110244       5.50549449
       385    1       16.54514966      24.33110244       1.37637500
       386    2       16.54514966      26.27759063       2.74724450
       387    2       16.54514966      26.27759063       0.00000551
       388    1       18.49163785      26.27759063       4.12912500
       389    2       18.49163785      24.33110244       2.75825550
       390    2       18.49163785      24.33110244       5.50549449
       391    1       20.43812605      24.33110244       1.37637500
       392    2       20.43812605      26.27759063       2.74724450
       393    2       20.43812605      26.27759063       0.00000551
       394    1       22.38461424      26.27759063       4.12912500
       395    2       22.38461424      24.33110244       2.75825550
       396    2       22.38461424      24.33110244       5.50549449
       397    1       24.33110244      24.33110244       1.37637500
       398    2       24.33110244      26.27759063       2.74724450
       399    2       24.33110244      26.27759063       0.00000551
       400    1       26.27759063      26.27759063       4.12912500
       401    2       26.27759063      24.33110244       2.75825550
       402    2       26.27759063      24.33110244       5.50549449
       403    1       28.22407883      24.33110244       1.37637500
       404    2       28.22407883      26.27759063       2.74724450
       405    2       28.22407883      26.27759063       0.00000551
       406    1       30.17056702      26.27759063       4.12912500
       407    2       30.17056702      24.33110244       2.75825550
       408    2       30.17056702      24.33110244       5.50549449
       409    1       32.11705522      24.33110244       1.37637500
       410    2       32.11705522      26.27759063       2.74724450
       411    2       32.11705522      26.27759063       0.00000551
       412    1       34.06354341      26.27759063       4.12912500
       413    2       34.06354341      24.33110244       2.75825550
       414    2       34.06354341      24.33110244       5.50549449
       415    1       36.01003161      24.33110244       1.37637500
       416    2       36.01003161      26.27759063       2.74724450
       417    2       36.01003161      26.27759063       0.00000551
       418    1       37.95651980      26.27759063       4.12912500
       419    2       37.95651980      24.33110244       2.75825550
       420    2       37.95651980      24.33110244       5.50549449
       421    1        0.97324410      28.22407883       1.37637500
       422    2        0.97324410      30.17056702       2.74724450
       423    2        0.97324410      30.17056702       0.00000551
       424    1        2.91973229      30.17056702       4.12912500
       425    2        2.91973229      28.22407883       2.75825550
       426    2        2.91973229      28.22407883       5.50549449
       427    1        4.86622049      28.22407883       1.37637500
       428    2        4.86622049      30.17056702       2.74724450
       429    2        4.86622049      30.17056702       0.00000551
       430    1        6.81270868      30.17056702       4.12912500
       431    2        6.81270868      28.22407883       2.75825550
       432    2        6.81270868      28.22407883       5.50549449
       433    1        8.75919688      28.22407883       1.37637500
       434    2        8.75919688      30.17056702       2.74724450
       435    2        8.75919688      30.17056702       0.00000551
       436    1       10.70568507      30.17056702       4.12912500
       437    2       10.70568507      28.22407883       2.75825550