ITEM: TIMESTEP 
0 
ITEM: NUMBER OF ATOMS 
6 
ITEM: BOX BOUNDS pp pp pp 
0 3.90322943 
0 5.52
0 3.90322943
ITEM: ATOMS id type xs ys zs  
1   1   0.0     0.25  0
2   2   0.0     0.5   0.5  
3   2   0.0     0.0   0.5   
4   1   0.5     0.75  0.5  
5   2   0.5     0.5   0
6   2   0.5     0     0
