ITEM: TIMESTEP
0
ITEM: NUMBER OF ATOMS
468
ITEM: BOX BOUNDS pp pp ff
0 24
0 24
-10 18.9699
ITEM: ATOMS id type q x y z 
43 1 2 2 2 0 
44 1 2 2 2 4 
73 2 4 0 0 2 
77 2 4 0 4 2 
97 2 4 4 0 2 
101 2 4 4 4 2 
109 3 -2 0 0 0 
110 3 -2 0 0 4 
120 3 -2 0 2 2 
122 3 -2 0 4 0 
123 3 -2 0 4 4 
183 3 -2 2 0 2 
203 3 -2 2 4 2 
211 3 -2 4 0 0 
212 3 -2 4 0 4 
222 3 -2 4 2 2 
224 3 -2 4 4 0 
225 3 -2 4 4 4 
7 1 2 10 2 0 
8 1 2 10 2 4 
67 1 2 6 2 0 
68 1 2 6 2 4 
103 2 4 8 0 2 
107 2 4 8 4 2 
127 3 -2 10 0 2 
131 3 -2 10 4 2 
229 3 -2 6 0 2 
233 3 -2 6 4 2 
235 3 -2 8 0 0 
236 3 -2 8 0 4 
246 3 -2 8 2 2 
248 3 -2 8 4 0 
249 3 -2 8 4 4 
37 1 2 2 10 0 
38 1 2 2 10 4 
47 1 2 2 6 0 
48 1 2 2 6 4 
78 2 4 0 8 2 
102 2 4 4 8 2 
111 3 -2 0 10 2 
124 3 -2 0 6 2 
125 3 -2 0 8 0 
126 3 -2 0 8 4 
204 3 -2 2 8 2 
213 3 -2 4 10 2 
226 3 -2 4 6 2 
227 3 -2 4 8 0 
228 3 -2 4 8 4 
1 1 2 10 10 0 
2 1 2 10 10 4 
11 1 2 10 6 0 
12 1 2 10 6 4 
61 1 2 6 10 0 
62 1 2 6 10 4 
71 1 2 6 6 0 
72 1 2 6 6 4 
108 2 4 8 8 2 
132 3 -2 10 8 2 
234 3 -2 6 8 2 
237 3 -2 8 10 2 
250 3 -2 8 6 2 
251 3 -2 8 8 0 
252 3 -2 8 8 4 
266 4 4 11.3848 10.5555 4.12648 
324 4 4 6.67269 7.86744 4.04378 
253 4 4 3.78487 0.388236 9.0847 
305 4 4 0.642131 4.29436 6.74829 
311 4 4 4.52231 4.52188 5.30896 
459 5 -2 5.71757 3.4796 7.59582 
450 5 -2 3.22359 3.60645 6.97411 
444 5 -2 3.69034 5.33102 11.439 
435 5 -2 2.51267 4.66516 7.37491 
383 5 -2 0.261803 5.90306 5.72385 
431 5 -2 4.1648 3.0809 5.28467 
412 5 -2 2.19325 2.53516 5.8039 
298 4 4 1.70792 1.04158 7.39006 
425 5 -2 1.65619 0.904155 8.68561 
468 5 -2 10.4992 5.83871 6.05317 
467 5 -2 7.76588 4.84215 7.0233 
264 4 4 9.70046 5.59655 6.63743 
307 4 4 6.11817 2.08253 9.05071 
461 5 -2 8.98608 5.20471 5.52568 
317 4 4 6.49049 1.63912 8.13469 
318 4 4 8.12507 4.03758 7.03868 
323 4 4 11.3251 4.66686 5.83215 
456 5 -2 9.72082 5.1246 5.6775 
455 5 -2 8.17695 3.26034 9.12746 
443 5 -2 8.21135 1.93125 7.40338 
346 5 -2 9.36704 0.0379142 7.26637 
262 4 4 8.93282 1.83908 6.87159 
454 5 -2 7.93321 0.755128 9.98912 
345 5 -2 9.83938 4.71044 6.3806 
258 4 4 2.8961 10.7633 9.5102 
301 4 4 4.19374 10.1673 11.3137 
306 4 4 1.5995 6.82783 6.7567 
437 5 -2 1.28553 6.0447 11.3323 
432 5 -2 1.70316 10.3638 4.61905 
409 5 -2 2.99472 10.8941 8.79544 
462 5 -2 6.47119 11.4376 9.86258 
312 4 4 7.3167 11.7548 5.42109 
445 5 -2 6.11602 8.64694 4.56122 
331 5 -2 11.9665 10.9884 9.31951 
438 5 -2 6.0391 7.30314 7.96238 
320 4 4 9.59751 11.3361 7.5642 
39 1 2 2 14 0 
40 1 2 2 14 4 
74 2 4 0 12 2 
75 2 4 0 16 2 
98 2 4 4 12 2 
99 2 4 4 16 2 
112 3 -2 0 12 0 
113 3 -2 0 12 4 
114 3 -2 0 14 2 
115 3 -2 0 16 0 
116 3 -2 0 16 4 
200 3 -2 2 12 2 
201 3 -2 2 16 2 
214 3 -2 4 12 0 
215 3 -2 4 12 4 
216 3 -2 4 14 2 
217 3 -2 4 16 0 
218 3 -2 4 16 4 
3 1 2 10 14 0 
4 1 2 10 14 4 
63 1 2 6 14 0 
64 1 2 6 14 4 
104 2 4 8 12 2 
105 2 4 8 16 2 
128 3 -2 10 12 2 
129 3 -2 10 16 2 
230 3 -2 6 12 2 
231 3 -2 6 16 2 
238 3 -2 8 12 0 
239 3 -2 8 12 4 
240 3 -2 8 14 2 
241 3 -2 8 16 0 
242 3 -2 8 16 4 
41 1 2 2 18 0 
42 1 2 2 18 4 
45 1 2 2 22 0 
46 1 2 2 22 4 
76 2 4 0 20 2 
100 2 4 4 20 2 
117 3 -2 0 18 2 
118 3 -2 0 20 0 
119 3 -2 0 20 4 
121 3 -2 0 22 2 
202 3 -2 2 20 2 
219 3 -2 4 18 2 
220 3 -2 4 20 0 
221 3 -2 4 20 4 
223 3 -2 4 22 2 
5 1 2 10 18 0 
6 1 2 10 18 4 
9 1 2 10 22 0 
10 1 2 10 22 4 
65 1 2 6 18 0 
66 1 2 6 18 4 
69 1 2 6 22 0 
70 1 2 6 22 4 
106 2 4 8 20 2 
130 3 -2 10 20 2 
232 3 -2 6 20 2 
243 3 -2 8 18 2 
244 3 -2 8 20 0 
245 3 -2 8 20 4 
247 3 -2 8 22 2 
322 4 4 11.1745 21.3247 4.27351 
453 5 -2 7.57551 20.9451 4.47177 
254 4 4 1.9096 12.7002 8.22337 
255 4 4 1.9368 17.7525 6.1439 
302 4 4 4.29077 13.0489 5.59269 
303 4 4 3.50146 17.0863 11.4607 
308 4 4 5.0025 13.073 9.70996 
309 4 4 2.87219 14.8327 7.17614 
380 5 -2 1.64017 14.1882 9.51227 
381 5 -2 3.64677 17.0169 9.44867 
446 5 -2 4.46366 15.418 6.48299 
433 5 -2 2.60189 16.2521 7.19075 
441 5 -2 4.07555 13.468 9.55843 
423 5 -2 2.77007 17.9228 5.01298 
260 4 4 10.6147 12.8731 8.90983 
261 4 4 10.3365 16.0181 9.81223 
314 4 4 7.98262 17.8128 8.47914 
315 4 4 6.2074 17.8415 8.34132 
321 4 4 7.26566 15.9187 7.66167 
464 5 -2 10.2088 13.2875 9.51099 
458 5 -2 7.77798 16.7902 10.2428 
332 5 -2 7.54682 14.0245 8.85573 
457 5 -2 8.48431 16.0034 8.8447 
338 5 -2 11.1372 12.985 4.64799 
452 5 -2 6.70622 16.8084 4.93804 
428 5 -2 6.01616 15.0079 8.76195 
434 5 -2 7.10797 15.7978 5.51478 
440 5 -2 7.21342 13.7514 6.41431 
343 5 -2 11.8526 12.3867 9.78562 
313 4 4 6.17337 13.8316 7.88272 
451 5 -2 7.74875 14.6118 9.41272 
427 5 -2 6.68467 14.6012 4.4861 
256 4 4 1.62297 21.2974 7.21239 
304 4 4 4.14193 21.3526 11.3879 
310 4 4 5.30515 19.7203 9.17311 
316 4 4 5.90507 22.5927 8.7506 
326 5 -2 2.81689 19.6275 10.2354 
382 5 -2 4.38227 22.5883 7.65619 
447 5 -2 5.1509 19.8169 8.31453 
413 5 -2 1.55677 23.3598 6.09481 
429 5 -2 2.57077 18.2208 9.35062 
430 5 -2 5.33099 21.3553 7.35617 
442 5 -2 4.83729 22.1868 11.015 
439 5 -2 2.91975 23.9848 9.25219 
379 5 -2 3.83084 22.6717 8.6218 
466 5 -2 7.47613 23.028 5.9619 
465 5 -2 9.03047 18.8839 8.85852 
460 5 -2 7.4389 21.7326 10.2618 
333 5 -2 10.1905 21.2102 7.16989 
449 5 -2 6.56619 20.6719 4.60335 
436 5 -2 6.37388 23.98 6.49115 
265 4 4 11.2885 23.3071 6.14192 
344 5 -2 10.0635 20.2893 8.62037 
357 5 -2 11.397 19.5169 5.16817 
319 4 4 7.46554 23.335 7.97281 
448 5 -2 8.70739 23.7613 5.84142 
19 1 2 14 2 0 
20 1 2 14 2 4 
79 2 4 12 0 2 
83 2 4 12 4 2 
85 2 4 16 0 2 
89 2 4 16 4 2 
133 3 -2 12 0 0 
134 3 -2 12 0 4 
144 3 -2 12 2 2 
146 3 -2 12 4 0 
147 3 -2 12 4 4 
151 3 -2 14 0 2 
155 3 -2 14 4 2 
157 3 -2 16 0 0 
158 3 -2 16 0 4 
168 3 -2 16 2 2 
170 3 -2 16 4 0 
171 3 -2 16 4 4 
31 1 2 18 2 0 
32 1 2 18 2 4 
55 1 2 22 2 0 
56 1 2 22 2 4 
91 2 4 20 0 2 
95 2 4 20 4 2 
175 3 -2 18 0 2 
179 3 -2 18 4 2 
181 3 -2 20 0 0 
182 3 -2 20 0 4 
193 3 -2 20 2 2 
195 3 -2 20 4 0 
196 3 -2 20 4 4 
205 3 -2 22 0 2 
209 3 -2 22 4 2 
424 5 -2 21.9915 0.468108 4.05588 
13 1 2 14 10 0 
14 1 2 14 10 4 
23 1 2 14 6 0 
24 1 2 14 6 4 
84 2 4 12 8 2 
90 2 4 16 8 2 
135 3 -2 12 10 2 
148 3 -2 12 6 2 
149 3 -2 12 8 0 
150 3 -2 12 8 4 
156 3 -2 14 8 2 
159 3 -2 16 10 2 
172 3 -2 16 6 2 
173 3 -2 16 8 0 
174 3 -2 16 8 4 
25 1 2 18 10 0 
26 1 2 18 10 4 
35 1 2 18 6 0 
36 1 2 18 6 4 
49 1 2 22 10 0 
50 1 2 22 10 4 
59 1 2 22 6 0 
60 1 2 22 6 4 
96 2 4 20 8 2 
180 3 -2 18 8 2 
184 3 -2 20 10 2 
197 3 -2 20 6 2 
198 3 -2 20 8 0 
199 3 -2 20 8 4 
210 3 -2 22 8 2 
282 4 4 19.4347 9.71704 4.25424 
269 4 4 15.1598 4.56238 7.90232 
275 4 4 15.2604 5.94773 9.00043 
277 4 4 16.3859 0.570883 6.83421 
281 4 4 16.6409 5.0404 7.9336 
287 4 4 16.0777 4.47932 7.33614 
288 4 4 16.1343 5.78871 8.35756 
349 5 -2 16.1373 2.10664 7.15358 
358 5 -2 12.8652 2.57637 8.516 
365 5 -2 13.1956 2.29409 5.32049 
371 5 -2 17.6961 5.3255 7.71491 
373 5 -2 16.9701 2.83045 10.3373 
377 5 -2 17.7325 3.5349 8.06845 
390 5 -2 17.3228 5.07351 9.84831 
364 5 -2 16.1856 1.18835 7.15923 
263 4 4 12.4926 3.37914 8.70263 
334 5 -2 12.6047 2.47463 8.62213 
336 5 -2 12.1494 3.55473 7.82736 
418 5 -2 23.7545 4.40147 4.91262 
299 4 4 21.6224 4.17464 10.7269 
300 4 4 23.0466 4.65709 9.11842 
407 5 -2 21.1911 5.78453 5.5355 
403 5 -2 20.1964 0.363345 5.67336 
369 5 -2 18.7628 1.06835 5.7572 
388 5 -2 19.2364 2.98281 5.45811 
399 5 -2 21.5123 1.03318 8.70015 
395 5 -2 21.1916 4.15313 8.25577 
389 5 -2 20.4731 0.865806 9.04535 
257 4 4 23.4483 2.02721 5.2977 
327 5 -2 23.4799 1.19315 9.30546 
329 5 -2 23.4684 4.15755 10.0146 
270 4 4 12.1031 6.69883 7.23846 
271 4 4 17.3411 9.88295 8.2871 
276 4 4 12.9045 7.86436 9.78072 
347 5 -2 12.2055 8.4939 8.93768 
353 5 -2 12.7416 6.43952 10.0193 
354 5 -2 12.5799 10.0796 8.94277 
355 5 -2 17.1991 9.30805 9.90133 
360 5 -2 15.019 7.74291 6.48348 
366 5 -2 17.5805 10.1443 6.02853 
378 5 -2 15.9935 6.45942 10.3524 
350 5 -2 13.2265 9.33318 5.67647 
259 4 4 13.381 9.26123 11.0051 
341 5 -2 13.1892 6.50152 9.62747 
342 5 -2 13.5276 10.4255 4.68642 
426 5 -2 22.9039 7.18646 9.45602 
420 5 -2 22.0526 6.03409 8.34687 
283 4 4 19.4601 9.20953 6.05519 
293 4 4 20.435 6.45832 6.92079 
294 4 4 21.7724 11.9833 4.98217 
415 5 -2 22.9165 10.1006 9.61655 
408 5 -2 18.8307 10.9757 8.82685 
372 5 -2 19.0369 6.79639 10.9226 
401 5 -2 19.3787 8.11855 6.49061 
396 5 -2 22.2548 10.5072 9.37128 
404 5 -2 22.837 10.7611 11.128 
386 5 -2 20.7802 11.6598 9.98877 
330 5 -2 23.0987 10.0797 11.2854 
384 5 -2 23.8029 7.81299 7.89712 
414 5 -2 23.5383 6.81272 8.85486 
15 1 2 14 14 0 
16 1 2 14 14 4 
80 2 4 12 12 2 
81 2 4 12 16 2 
86 2 4 16 12 2 
87 2 4 16 16 2 
136 3 -2 12 12 0 
137 3 -2 12 12 4 
138 3 -2 12 14 2 
139 3 -2 12 16 0 
140 3 -2 12 16 4 
152 3 -2 14 12 2 
153 3 -2 14 16 2 
160 3 -2 16 12 0 
161 3 -2 16 12 4 
162 3 -2 16 14 2 
163 3 -2 16 16 0 
164 3 -2 16 16 4 
27 1 2 18 14 0 
28 1 2 18 14 4 
51 1 2 22 14 0 
52 1 2 22 14 4 
92 2 4 20 12 2 
93 2 4 20 16 2 
176 3 -2 18 12 2 
177 3 -2 18 16 2 
185 3 -2 20 12 0 
186 3 -2 20 12 4 
187 3 -2 20 14 2 
188 3 -2 20 16 0 
189 3 -2 20 16 4 
206 3 -2 22 12 2 
207 3 -2 22 16 2 
17 1 2 14 18 0 
18 1 2 14 18 4 
21 1 2 14 22 0 
22 1 2 14 22 4 
82 2 4 12 20 2 
88 2 4 16 20 2 
141 3 -2 12 18 2 
142 3 -2 12 20 0 
143 3 -2 12 20 4 
145 3 -2 12 22 2 
154 3 -2 14 20 2 
165 3 -2 16 18 2 
166 3 -2 16 20 0 
167 3 -2 16 20 4 
169 3 -2 16 22 2 
267 4 4 15.1252 18.0644 4.39867 
280 4 4 14.4024 19.3662 4.41822 
29 1 2 18 18 0 
30 1 2 18 18 4 
33 1 2 18 22 0 
34 1 2 18 22 4 
53 1 2 22 18 0 
54 1 2 22 18 4 
57 1 2 22 22 0 
58 1 2 22 22 4 
94 2 4 20 20 2 
178 3 -2 18 20 2 
190 3 -2 20 18 2 
191 3 -2 20 20 0 
192 3 -2 20 20 4 
194 3 -2 20 22 2 
208 3 -2 22 20 2 
272 4 4 13.0233 15.0828 7.74097 
278 4 4 17.975 13.3341 6.09026 
279 4 4 14.7109 16.138 9.52471 
284 4 4 16.9828 12.3118 8.31422 
351 5 -2 14.2198 16.5206 9.25626 
356 5 -2 12.7534 12.47 6.81613 
362 5 -2 14.3728 17.432 9.55523 
367 5 -2 13.6698 15.9169 6.56815 
368 5 -2 17.2708 14.9536 7.05868 
375 5 -2 15.8803 13.9821 10.2497 
348 5 -2 12.304 12.2063 11.2617 
361 5 -2 16.9279 14.1286 5.9969 
385 5 -2 17.2837 12.5089 9.75112 
337 5 -2 14.269 13.1013 8.90989 
422 5 -2 21.1332 15.7106 4.76255 
417 5 -2 22.303 15.5869 9.0153 
290 4 4 21.0433 14.6049 5.25629 
291 4 4 22.9259 16.1611 7.5844 
296 4 4 23.0769 12.2153 5.80278 
416 5 -2 19.9441 13.851 8.81549 
405 5 -2 22.3238 17.6411 6.91386 
398 5 -2 20.5962 17.3215 5.75107 
397 5 -2 21.0753 13.0711 10.0298 
374 5 -2 18.2592 13.4182 10.8822 
392 5 -2 20.5483 16.2545 8.25 
421 5 -2 21.9877 14.2137 8.65675 
295 4 4 20.2059 13.3265 8.1091 
402 5 -2 19.1506 12.2187 8.98338 
391 5 -2 22.6364 12.7552 5.02037 
325 5 -2 22.3665 14.7168 9.58002 
410 5 -2 23.8586 15.3708 9.74191 
411 5 -2 23.5931 16.7196 7.87382 
268 4 4 15.0615 18.4406 5.01086 
273 4 4 13.2134 21.1425 5.77508 
274 4 4 17.3251 22.1473 11.3126 
285 4 4 17.1316 21.0328 9.06911 
352 5 -2 14.8261 22.0821 8.21369 
359 5 -2 15.8788 19.7086 7.25862 
363 5 -2 17.1685 22.0462 6.32768 
370 5 -2 13.2821 19.0494 8.5471 
463 5 -2 12.1093 23.0668 5.89965 
335 5 -2 12.111 21.7998 6.1447 
339 5 -2 13.3934 21.4404 7.0616 
340 5 -2 12.552 21.5677 6.38857 
419 5 -2 22.6763 23.4834 6.41918 
286 4 4 18.5698 23.3609 7.5588 
292 4 4 22.7911 21.8766 9.44433 
297 4 4 20.5665 20.8344 10.6763 
406 5 -2 18.9502 22.3281 8.97384 
400 5 -2 21.6343 19.4349 8.80902 
394 5 -2 20.5258 23.7359 4.52767 
376 5 -2 19.1653 22.3519 7.66115 
393 5 -2 22.7366 19.4343 4.53361 
387 5 -2 19.3154 19.8839 6.48909 
289 4 4 20.3109 23.5898 5.07443 
328 5 -2 23.1146 19.4699 7.96323 
ITEM: TIMESTEP
10
ITEM: NUMBER OF ATOMS
468
ITEM: BOX BOUNDS pp pp ff
0 24
0 24
-10 18.9699
ITEM: ATOMS id type q x y z 
43 1 2 2 2 0 
44 1 2 2 2 4 
73 2 4 0 0 2 
77 2 4 0 4 2 
97 2 4 4 0 2 
101 2 4 4 4 2 
109 3 -2 0 0 0 
110 3 -2 0 0 4 
120 3 -2 0 2 2 
122 3 -2 0 4 0 
123 3 -2 0 4 4 
183 3 -2 2 0 2 
203 3 -2 2 4 2 
211 3 -2 4 0 0 
212 3 -2 4 0 4 
222 3 -2 4 2 2 
224 3 -2 4 4 0 
225 3 -2 4 4 4 
7 1 2 10 2 0 
8 1 2 10 2 4 
67 1 2 6 2 0 
68 1 2 6 2 4 
103 2 4 8 0 2 
107 2 4 8 4 2 
127 3 -2 10 0 2 
131 3 -2 10 4 2 
229 3 -2 6 0 2 
233 3 -2 6 4 2 
235 3 -2 8 0 0 
236 3 -2 8 0 4 
246 3 -2 8 2 2 
248 3 -2 8 4 0 
249 3 -2 8 4 4 
37 1 2 2 10 0 
38 1 2 2 10 4 
47 1 2 2 6 0 
48 1 2 2 6 4 
78 2 4 0 8 2 
102 2 4 4 8 2 
111 3 -2 0 10 2 
124 3 -2 0 6 2 
125 3 -2 0 8 0 
126 3 -2 0 8 4 
204 3 -2 2 8 2 
213 3 -2 4 10 2 
226 3 -2 4 6 2 
227 3 -2 4 8 0 
228 3 -2 4 8 4 
1 1 2 10 10 0 
2 1 2 10 10 4 
11 1 2 10 6 0 
12 1 2 10 6 4 
61 1 2 6 10 0 
62 1 2 6 10 4 
71 1 2 6 6 0 
72 1 2 6 6 4 
108 2 4 8 8 2 
132 3 -2 10 8 2 
234 3 -2 6 8 2 
237 3 -2 8 10 2 
250 3 -2 8 6 2 
251 3 -2 8 8 0 
252 3 -2 8 8 4 
266 4 4 11.3848 10.5555 4.12648 
324 4 4 6.67269 7.86743 4.04377 
253 4 4 3.78488 0.388241 9.08469 
305 4 4 0.642131 4.29436 6.74829 
311 4 4 4.52231 4.52188 5.30897 
459 5 -2 5.71758 3.47959 7.59582 
450 5 -2 3.22361 3.60643 6.97411 
444 5 -2 3.69034 5.33102 11.439 
435 5 -2 2.51266 4.66518 7.37491 
383 5 -2 0.261808 5.90307 5.72385 
431 5 -2 4.1648 3.0809 5.28467 
412 5 -2 2.19324 2.53515 5.8039 
298 4 4 1.70792 1.04158 7.39005 
425 5 -2 1.65619 0.904157 8.68562 
468 5 -2 10.4993 5.83876 6.05318 
467 5 -2 7.76586 4.84218 7.0233 
264 4 4 9.70043 5.59658 6.63747 
307 4 4 6.11815 2.08256 9.05077 
461 5 -2 8.98604 5.20471 5.52565 
317 4 4 6.49051 1.63909 8.13462 
318 4 4 8.12508 4.03756 7.03868 
323 4 4 11.3251 4.66684 5.83214 
456 5 -2 9.7208 5.1246 5.67742 
455 5 -2 8.17694 3.26034 9.12746 
443 5 -2 8.21133 1.93125 7.40339 
346 5 -2 9.36704 0.0379195 7.26637 
262 4 4 8.93284 1.83907 6.87158 
454 5 -2 7.9332 0.755129 9.98911 
345 5 -2 9.8394 4.71036 6.38067 
258 4 4 2.89609 10.7633 9.5102 
301 4 4 4.19374 10.1673 11.3137 
306 4 4 1.59949 6.82783 6.75671 
437 5 -2 1.28553 6.0447 11.3323 
432 5 -2 1.70315 10.3638 4.61907 
409 5 -2 2.99472 10.8941 8.79544 
462 5 -2 6.47118 11.4376 9.86258 
312 4 4 7.3167 11.7548 5.42109 
445 5 -2 6.11602 8.64695 4.56122 
331 5 -2 11.9664 10.9884 9.31952 
438 5 -2 6.0391 7.30314 7.96238 
320 4 4 9.59751 11.3361 7.56421 
39 1 2 2 14 0 
40 1 2 2 14 4 
74 2 4 0 12 2 
75 2 4 0 16 2 
98 2 4 4 12 2 
99 2 4 4 16 2 
112 3 -2 0 12 0 
113 3 -2 0 12 4 
114 3 -2 0 14 2 
115 3 -2 0 16 0 
116 3 -2 0 16 4 
200 3 -2 2 12 2 
201 3 -2 2 16 2 
214 3 -2 4 12 0 
215 3 -2 4 12 4 
216 3 -2 4 14 2 
217 3 -2 4 16 0 
218 3 -2 4 16 4 
3 1 2 10 14 0 
4 1 2 10 14 4 
63 1 2 6 14 0 
64 1 2 6 14 4 
104 2 4 8 12 2 
105 2 4 8 16 2 
128 3 -2 10 12 2 
129 3 -2 10 16 2 
230 3 -2 6 12 2 
231 3 -2 6 16 2 
238 3 -2 8 12 0 
239 3 -2 8 12 4 
240 3 -2 8 14 2 
241 3 -2 8 16 0 
242 3 -2 8 16 4 
41 1 2 2 18 0 
42 1 2 2 18 4 
45 1 2 2 22 0 
46 1 2 2 22 4 
76 2 4 0 20 2 
100 2 4 4 20 2 
117 3 -2 0 18 2 
118 3 -2 0 20 0 
119 3 -2 0 20 4 
121 3 -2 0 22 2 
202 3 -2 2 20 2 
219 3 -2 4 18 2 
220 3 -2 4 20 0 
221 3 -2 4 20 4 
223 3 -2 4 22 2 
5 1 2 10 18 0 
6 1 2 10 18 4 
9 1 2 10 22 0 
10 1 2 10 22 4 
65 1 2 6 18 0 
66 1 2 6 18 4 
69 1 2 6 22 0 
70 1 2 6 22 4 
106 2 4 8 20 2 
130 3 -2 10 20 2 
232 3 -2 6 20 2 
243 3 -2 8 18 2 
244 3 -2 8 20 0 
245 3 -2 8 20 4 
247 3 -2 8 22 2 
322 4 4 11.1745 21.3247 4.27352 
453 5 -2 7.57555 20.9451 4.47177 
254 4 4 1.90959 12.7002 8.22338 
255 4 4 1.93679 17.7525 6.1439 
302 4 4 4.29077 13.0489 5.59269 
303 4 4 3.50146 17.0863 11.4607 
308 4 4 5.00252 13.073 9.70997 
309 4 4 2.87218 14.8327 7.17614 
380 5 -2 1.64018 14.1882 9.51226 
381 5 -2 3.64678 17.0169 9.44867 
446 5 -2 4.46366 15.418 6.48299 
433 5 -2 2.60189 16.2521 7.19075 
441 5 -2 4.07553 13.468 9.55842 
423 5 -2 2.77008 17.9228 5.01299 
260 4 4 10.6147 12.873 8.90982 
261 4 4 10.3365 16.0181 9.81224 
314 4 4 7.98263 17.8128 8.47914 
315 4 4 6.20739 17.8415 8.34131 
321 4 4 7.26566 15.9187 7.66166 
464 5 -2 10.2088 13.2875 9.511 
458 5 -2 7.77798 16.7902 10.2428 
332 5 -2 7.5468 14.0244 8.85568 
457 5 -2 8.48431 16.0034 8.84469 
338 5 -2 11.1372 12.985 4.648 
452 5 -2 6.70621 16.8084 4.93804 
428 5 -2 6.01616 15.0079 8.76195 
434 5 -2 7.10797 15.7978 5.51481 
440 5 -2 7.21342 13.7514 6.41431 
343 5 -2 11.8526 12.3867 9.78561 
313 4 4 6.17338 13.8316 7.88272 
451 5 -2 7.74877 14.6119 9.41277 
427 5 -2 6.68468 14.6012 4.4861 
256 4 4 1.62297 21.2974 7.21239 
304 4 4 4.14192 21.3526 11.3879 
310 4 4 5.30515 19.7203 9.17313 
316 4 4 5.90507 22.5927 8.7506 
326 5 -2 2.81689 19.6276 10.2354 
382 5 -2 4.38229 22.5883 7.65616 
447 5 -2 5.1509 19.8169 8.31451 
413 5 -2 1.55677 23.3598 6.09481 
429 5 -2 2.57077 18.2208 9.35062 
430 5 -2 5.331 21.3553 7.35617 
442 5 -2 4.8373 22.1868 11.015 
439 5 -2 2.91973 23.9848 9.2522 
379 5 -2 3.83082 22.6717 8.62184 
466 5 -2 7.47612 23.028 5.9619 
465 5 -2 9.03046 18.8839 8.85852 
460 5 -2 7.43889 21.7326 10.2618 
333 5 -2 10.1905 21.2102 7.16989 
449 5 -2 6.56614 20.6719 4.60335 
436 5 -2 6.37387 23.98 6.49116 
265 4 4 11.2884 23.3071 6.14193 
344 5 -2 10.0635 20.2893 8.62037 
357 5 -2 11.397 19.5168 5.16818 
319 4 4 7.46555 23.335 7.9728 
448 5 -2 8.7074 23.7613 5.84142 
19 1 2 14 2 0 
20 1 2 14 2 4 
79 2 4 12 0 2 
83 2 4 12 4 2 
85 2 4 16 0 2 
89 2 4 16 4 2 
133 3 -2 12 0 0 
134 3 -2 12 0 4 
144 3 -2 12 2 2 
146 3 -2 12 4 0 
147 3 -2 12 4 4 
151 3 -2 14 0 2 
155 3 -2 14 4 2 
157 3 -2 16 0 0 
158 3 -2 16 0 4 
168 3 -2 16 2 2 
170 3 -2 16 4 0 
171 3 -2 16 4 4 
31 1 2 18 2 0 
32 1 2 18 2 4 
55 1 2 22 2 0 
56 1 2 22 2 4 
91 2 4 20 0 2 
95 2 4 20 4 2 
175 3 -2 18 0 2 
179 3 -2 18 4 2 
181 3 -2 20 0 0 
182 3 -2 20 0 4 
193 3 -2 20 2 2 
195 3 -2 20 4 0 
196 3 -2 20 4 4 
205 3 -2 22 0 2 
209 3 -2 22 4 2 
424 5 -2 21.9915 0.46811 4.05588 
13 1 2 14 10 0 
14 1 2 14 10 4 
23 1 2 14 6 0 
24 1 2 14 6 4 
84 2 4 12 8 2 
90 2 4 16 8 2 
135 3 -2 12 10 2 
148 3 -2 12 6 2 
149 3 -2 12 8 0 
150 3 -2 12 8 4 
156 3 -2 14 8 2 
159 3 -2 16 10 2 
172 3 -2 16 6 2 
173 3 -2 16 8 0 
174 3 -2 16 8 4 
25 1 2 18 10 0 
26 1 2 18 10 4 
35 1 2 18 6 0 
36 1 2 18 6 4 
49 1 2 22 10 0 
50 1 2 22 10 4 
59 1 2 22 6 0 
60 1 2 22 6 4 
96 2 4 20 8 2 
180 3 -2 18 8 2 
184 3 -2 20 10 2 
197 3 -2 20 6 2 
198 3 -2 20 8 0 
199 3 -2 20 8 4 
210 3 -2 22 8 2 
282 4 4 19.4348 9.71703 4.25423 
269 4 4 15.1597 4.56235 7.90235 
275 4 4 15.2604 5.94776 9.0005 
277 4 4 16.3859 0.570892 6.83421 
281 4 4 16.641 5.04037 7.93362 
287 4 4 16.0778 4.47923 7.33603 
288 4 4 16.1344 5.7888 8.35759 
349 5 -2 16.1373 2.10672 7.15358 
358 5 -2 12.735 2.52547 8.56906 
365 5 -2 13.1956 2.29409 5.32049 
371 5 -2 17.6961 5.32551 7.71491 
373 5 -2 16.9701 2.83045 10.3372 
377 5 -2 17.7325 3.53491 8.06845 
390 5 -2 17.3228 5.07351 9.8483 
364 5 -2 16.1856 1.18827 7.15923 
263 4 4 12.4926 3.37917 8.70266 
334 5 -2 12.735 2.52547 8.56906 
336 5 -2 12.1494 3.55476 7.82732 
418 5 -2 23.7545 4.40149 4.91267 
299 4 4 21.6224 4.17465 10.7269 
300 4 4 23.0466 4.6571 9.11841 
407 5 -2 21.191 5.78453 5.5355 
403 5 -2 20.1964 0.363368 5.67339 
369 5 -2 18.7628 1.06835 5.7572 
388 5 -2 19.2364 2.98281 5.45812 
399 5 -2 21.5123 1.03319 8.70014 
395 5 -2 21.1916 4.15313 8.25577 
389 5 -2 20.4731 0.865798 9.04537 
257 4 4 23.4483 2.02721 5.2977 
327 5 -2 23.4799 1.19315 9.30547 
329 5 -2 23.4684 4.15754 10.0146 
270 4 4 12.1031 6.69884 7.23846 
271 4 4 17.3411 9.88296 8.28711 
276 4 4 12.9045 7.86436 9.78073 
347 5 -2 12.2055 8.49389 8.93767 
353 5 -2 12.7422 6.4396 10.0188 
354 5 -2 12.5799 10.0796 8.94276 
355 5 -2 17.1991 9.30805 9.90133 
360 5 -2 15.019 7.7429 6.48349 
366 5 -2 17.5805 10.1443 6.02853 
378 5 -2 15.9935 6.45942 10.3524 
350 5 -2 13.2265 9.33317 5.67648 
259 4 4 13.381 9.26125 11.0051 
341 5 -2 13.1886 6.50144 9.62798 
342 5 -2 13.5276 10.4256 4.68643 
426 5 -2 22.9039 7.18649 9.45607 
420 5 -2 22.0526 6.03408 8.34686 
283 4 4 19.4601 9.20953 6.0552 
293 4 4 20.435 6.45831 6.9208 
294 4 4 21.7723 11.9833 4.98217 
415 5 -2 22.9165 10.1005 9.61656 
408 5 -2 18.8307 10.9756 8.82684 
372 5 -2 19.0369 6.79639 10.9226 
401 5 -2 19.3787 8.11854 6.49061 
396 5 -2 22.2548 10.5072 9.37125 
404 5 -2 22.837 10.7611 11.128 
386 5 -2 20.7802 11.6598 9.98877 
330 5 -2 23.0987 10.0797 11.2854 
384 5 -2 23.803 7.813 7.8971 
414 5 -2 23.5383 6.81268 8.85482 
15 1 2 14 14 0 
16 1 2 14 14 4 
80 2 4 12 12 2 
81 2 4 12 16 2 
86 2 4 16 12 2 
87 2 4 16 16 2 
136 3 -2 12 12 0 
137 3 -2 12 12 4 
138 3 -2 12 14 2 
139 3 -2 12 16 0 
140 3 -2 12 16 4 
152 3 -2 14 12 2 
153 3 -2 14 16 2 
160 3 -2 16 12 0 
161 3 -2 16 12 4 
162 3 -2 16 14 2 
163 3 -2 16 16 0 
164 3 -2 16 16 4 
27 1 2 18 14 0 
28 1 2 18 14 4 
51 1 2 22 14 0 
52 1 2 22 14 4 
92 2 4 20 12 2 
93 2 4 20 16 2 
176 3 -2 18 12 2 
177 3 -2 18 16 2 
185 3 -2 20 12 0 
186 3 -2 20 12 4 
187 3 -2 20 14 2 
188 3 -2 20 16 0 
189 3 -2 20 16 4 
206 3 -2 22 12 2 
207 3 -2 22 16 2 
17 1 2 14 18 0 
18 1 2 14 18 4 
21 1 2 14 22 0 
22 1 2 14 22 4 
82 2 4 12 20 2 
88 2 4 16 20 2 
141 3 -2 12 18 2 
142 3 -2 12 20 0 
143 3 -2 12 20 4 
145 3 -2 12 22 2 
154 3 -2 14 20 2 
165 3 -2 16 18 2 
166 3 -2 16 20 0 
167 3 -2 16 20 4 
169 3 -2 16 22 2 
267 4 4 15.1253 18.0644 4.39866 
280 4 4 14.4024 19.3663 4.41821 
29 1 2 18 18 0 
30 1 2 18 18 4 
33 1 2 18 22 0 
34 1 2 18 22 4 
53 1 2 22 18 0 
54 1 2 22 18 4 
57 1 2 22 22 0 
58 1 2 22 22 4 
94 2 4 20 20 2 
178 3 -2 18 20 2 
190 3 -2 20 18 2 
191 3 -2 20 20 0 
192 3 -2 20 20 4 
194 3 -2 20 22 2 
208 3 -2 22 20 2 
272 4 4 13.0233 15.0828 7.74097 
278 4 4 17.975 13.3341 6.09027 
279 4 4 14.7109 16.138 9.52469 
284 4 4 16.9828 12.3118 8.31424 
351 5 -2 14.2199 16.5205 9.25626 
356 5 -2 12.7534 12.47 6.81613 
362 5 -2 14.3728 17.432 9.55525 
367 5 -2 13.6698 15.9169 6.56815 
368 5 -2 17.2708 14.9536 7.05869 
375 5 -2 15.8803 13.9821 10.2497 
348 5 -2 12.304 12.2063 11.2617 
361 5 -2 16.9279 14.1286 5.99689 
385 5 -2 17.2837 12.5088 9.75111 
337 5 -2 14.269 13.1013 8.90989 
422 5 -2 21.1333 15.7106 4.76255 
417 5 -2 22.303 15.587 9.01527 
290 4 4 21.0433 14.605 5.25631 
291 4 4 22.9259 16.1611 7.5844 
296 4 4 23.077 12.2153 5.80282 
416 5 -2 19.9441 13.851 8.8155 
405 5 -2 22.3238 17.6411 6.91385 
398 5 -2 20.5962 17.3215 5.75107 
397 5 -2 21.0753 13.0711 10.0298 
374 5 -2 18.2592 13.4182 10.8822 
392 5 -2 20.5483 16.2545 8.25 
421 5 -2 21.9877 14.2137 8.6567 
295 4 4 20.206 13.3265 8.10911 
402 5 -2 19.1506 12.2187 8.98337 
391 5 -2 22.6364 12.7552 5.02036 
325 5 -2 22.3666 14.7168 9.58008 
410 5 -2 23.8586 15.3708 9.74191 
411 5 -2 23.5932 16.7196 7.87383 
268 4 4 15.0615 18.4406 5.01092 
273 4 4 13.2134 21.1425 5.77508 
274 4 4 17.3251 22.1473 11.3126 
285 4 4 17.1316 21.0328 9.0691 
352 5 -2 14.8261 22.0821 8.21369 
359 5 -2 15.8788 19.7086 7.25861 
363 5 -2 17.1685 22.0462 6.32768 
370 5 -2 13.2821 19.0494 8.5471 
463 5 -2 12.1093 23.0668 5.89963 
335 5 -2 12.1122 21.7991 6.1454 
339 5 -2 13.3934 21.4404 7.06164 
340 5 -2 12.5507 21.5683 6.38785 
419 5 -2 22.6763 23.4834 6.41918 
286 4 4 18.5698 23.3609 7.55879 
292 4 4 22.7911 21.8766 9.44432 
297 4 4 20.5665 20.8344 10.6763 
406 5 -2 18.9502 22.3281 8.97386 
400 5 -2 21.6343 19.4349 8.80903 
394 5 -2 20.5257 23.7359 4.52789 
376 5 -2 19.1653 22.3519 7.66114 
393 5 -2 22.7366 19.4343 4.53362 
387 5 -2 19.3154 19.8839 6.48909 
289 4 4 20.311 23.5898 5.07423 
328 5 -2 23.1146 19.4699 7.96323 
ITEM: TIMESTEP
20
ITEM: NUMBER OF ATOMS
468
ITEM: BOX BOUNDS pp pp ff
0 24
0 24
-10 18.9699
ITEM: ATOMS id type q x y z 
43 1 2 2 2 0 
44 1 2 2 2 4 
73 2 4 0 0 2 
77 2 4 0 4 2 
97 2 4 4 0 2 
101 2 4 4 4 2 
109 3 -2 0 0 0 
110 3 -2 0 0 4 
120 3 -2 0 2 2 
122 3 -2 0 4 0 
123 3 -2 0 4 4 
183 3 -2 2 0 2 
203 3 -2 2 4 2 
211 3 -2 4 0 0 
212 3 -2 4 0 4 
222 3 -2 4 2 2 
224 3 -2 4 4 0 
225 3 -2 4 4 4 
7 1 2 10 2 0 
8 1 2 10 2 4 
67 1 2 6 2 0 
68 1 2 6 2 4 
103 2 4 8 0 2 
107 2 4 8 4 2 
127 3 -2 10 0 2 
131 3 -2 10 4 2 
229 3 -2 6 0 2 
233 3 -2 6 4 2 
235 3 -2 8 0 0 
236 3 -2 8 0 4 
246 3 -2 8 2 2 
248 3 -2 8 4 0 
249 3 -2 8 4 4 
37 1 2 2 10 0 
38 1 2 2 10 4 
47 1 2 2 6 0 
48 1 2 2 6 4 
78 2 4 0 8 2 
102 2 4 4 8 2 
111 3 -2 0 10 2 
124 3 -2 0 6 2 
125 3 -2 0 8 0 
126 3 -2 0 8 4 
204 3 -2 2 8 2 
213 3 -2 4 10 2 
226 3 -2 4 6 2 
227 3 -2 4 8 0 
228 3 -2 4 8 4 
1 1 2 10 10 0 
2 1 2 10 10 4 
11 1 2 10 6 0 
12 1 2 10 6 4 
61 1 2 6 10 0 
62 1 2 6 10 4 
71 1 2 6 6 0 
72 1 2 6 6 4 
108 2 4 8 8 2 
132 3 -2 10 8 2 
234 3 -2 6 8 2 
237 3 -2 8 10 2 
250 3 -2 8 6 2 
251 3 -2 8 8 0 
252 3 -2 8 8 4 
266 4 4 11.3848 10.5555 4.12648 
324 4 4 6.67269 7.86743 4.04377 
253 4 4 3.78488 0.388241 9.08469 
305 4 4 0.642131 4.29436 6.74829 
311 4 4 4.52231 4.52188 5.30897 
459 5 -2 5.71758 3.47959 7.59582 
450 5 -2 3.22361 3.60643 6.97411 
444 5 -2 3.69034 5.33102 11.439 
435 5 -2 2.51266 4.66518 7.37491 
383 5 -2 0.261808 5.90307 5.72385 
431 5 -2 4.1648 3.0809 5.28467 
412 5 -2 2.19324 2.53515 5.8039 
298 4 4 1.70792 1.04158 7.39005 
425 5 -2 1.65619 0.904157 8.68562 
468 5 -2 10.4993 5.83876 6.05318 
467 5 -2 7.76586 4.84218 7.0233 
264 4 4 9.70043 5.59658 6.63747 
307 4 4 6.11815 2.08256 9.05077 
461 5 -2 8.98604 5.20471 5.52565 
317 4 4 6.49051 1.63909 8.13462 
318 4 4 8.12508 4.03756 7.03868 
323 4 4 11.3251 4.66684 5.83214 
456 5 -2 9.7208 5.1246 5.67742 
455 5 -2 8.17694 3.26034 9.12746 
443 5 -2 8.21133 1.93125 7.40339 
346 5 -2 9.36704 0.0379195 7.26637 
262 4 4 8.93284 1.83907 6.87158 
454 5 -2 7.9332 0.755129 9.98911 
345 5 -2 9.8394 4.71036 6.38067 
258 4 4 2.89609 10.7633 9.5102 
301 4 4 4.19374 10.1673 11.3137 
306 4 4 1.59949 6.82783 6.75671 
437 5 -2 1.28553 6.0447 11.3323 
432 5 -2 1.70315 10.3638 4.61907 
409 5 -2 2.99472 10.8941 8.79544 
462 5 -2 6.47118 11.4376 9.86258 
312 4 4 7.3167 11.7548 5.42109 
445 5 -2 6.11602 8.64695 4.56122 
331 5 -2 11.9664 10.9884 9.31952 
438 5 -2 6.0391 7.30314 7.96238 
320 4 4 9.59751 11.3361 7.56421 
39 1 2 2 14 0 
40 1 2 2 14 4 
74 2 4 0 12 2 
75 2 4 0 16 2 
98 2 4 4 12 2 
99 2 4 4 16 2 
112 3 -2 0 12 0 
113 3 -2 0 12 4 
114 3 -2 0 14 2 
115 3 -2 0 16 0 
116 3 -2 0 16 4 
200 3 -2 2 12 2 
201 3 -2 2 16 2 
214 3 -2 4 12 0 
215 3 -2 4 12 4 
216 3 -2 4 14 2 
217 3 -2 4 16 0 
218 3 -2 4 16 4 
3 1 2 10 14 0 
4 1 2 10 14 4 
63 1 2 6 14 0 
64 1 2 6 14 4 
104 2 4 8 12 2 
105 2 4 8 16 2 
128 3 -2 10 12 2 
129 3 -2 10 16 2 
230 3 -2 6 12 2 
231 3 -2 6 16 2 
238 3 -2 8 12 0 
239 3 -2 8 12 4 
240 3 -2 8 14 2 
241 3 -2 8 16 0 
242 3 -2 8 16 4 
41 1 2 2 18 0 
42 1 2 2 18 4 
45 1 2 2 22 0 
46 1 2 2 22 4 
76 2 4 0 20 2 
100 2 4 4 20 2 
117 3 -2 0 18 2 
118 3 -2 0 20 0 
119 3 -2 0 20 4 
121 3 -2 0 22 2 
202 3 -2 2 20 2 
219 3 -2 4 18 2 
220 3 -2 4 20 0 
221 3 -2 4 20 4 
223 3 -2 4 22 2 
5 1 2 10 18 0 
6 1 2 10 18 4 
9 1 2 10 22 0 
10 1 2 10 22 4 
65 1 2 6 18 0 
66 1 2 6 18 4 
69 1 2 6 22 0 
70 1 2 6 22 4 
106 2 4 8 20 2 
130 3 -2 10 20 2 
232 3 -2 6 20 2 
243 3 -2 8 18 2 
244 3 -2 8 20 0 
245 3 -2 8 20 4 
247 3 -2 8 22 2 
322 4 4 11.1745 21.3247 4.27352 
453 5 -2 7.57555 20.9451 4.47177 
254 4 4 1.90959 12.7002 8.22338 
255 4 4 1.93679 17.7525 6.1439 
302 4 4 4.29077 13.0489 5.59269 
303 4 4 3.50146 17.0863 11.4607 
308 4 4 5.00252 13.073 9.70997 
309 4 4 2.87218 14.8327 7.17614 
380 5 -2 1.64018 14.1882 9.51226 
381 5 -2 3.64678 17.0169 9.44867 
446 5 -2 4.46366 15.418 6.48299 
433 5 -2 2.60189 16.2521 7.19075 
441 5 -2 4.07553 13.468 9.55842 
423 5 -2 2.77008 17.9228 5.01299 
260 4 4 10.6147 12.873 8.90982 
261 4 4 10.3365 16.0181 9.81224 
314 4 4 7.98263 17.8128 8.47914 
315 4 4 6.20739 17.8415 8.34131 
321 4 4 7.26566 15.9187 7.66166 
464 5 -2 10.2088 13.2875 9.511 
458 5 -2 7.77798 16.7902 10.2428 
332 5 -2 7.5468 14.0244 8.85568 
457 5 -2 8.48431 16.0034 8.84469 
338 5 -2 11.1372 12.985 4.648 
452 5 -2 6.70621 16.8084 4.93804 
428 5 -2 6.01616 15.0079 8.76195 
434 5 -2 7.10797 15.7978 5.51481 
440 5 -2 7.21342 13.7514 6.41431 
343 5 -2 11.8526 12.3867 9.78561 
313 4 4 6.17338 13.8316 7.88272 
451 5 -2 7.74877 14.6119 9.41277 
427 5 -2 6.68468 14.6012 4.4861 
256 4 4 1.62297 21.2974 7.21239 
304 4 4 4.14192 21.3526 11.3879 
310 4 4 5.30515 19.7203 9.17313 
316 4 4 5.90507 22.5927 8.7506 
326 5 -2 2.81689 19.6276 10.2354 
382 5 -2 4.38229 22.5883 7.65616 
447 5 -2 5.1509 19.8169 8.31451 
413 5 -2 1.55677 23.3598 6.09481 
429 5 -2 2.57077 18.2208 9.35062 
430 5 -2 5.331 21.3553 7.35617 
442 5 -2 4.8373 22.1868 11.015 
439 5 -2 2.91973 23.9848 9.2522 
379 5 -2 3.83082 22.6717 8.62184 
466 5 -2 7.47612 23.028 5.9619 
465 5 -2 9.03046 18.8839 8.85852 
460 5 -2 7.43889 21.7326 10.2618 
333 5 -2 10.1905 21.2102 7.16989 
449 5 -2 6.56614 20.6719 4.60335 
436 5 -2 6.37387 23.98 6.49116 
265 4 4 11.2884 23.3071 6.14193 
344 5 -2 10.0635 20.2893 8.62037 
357 5 -2 11.397 19.5168 5.16818 
319 4 4 7.46555 23.335 7.9728 
448 5 -2 8.7074 23.7613 5.84142 
19 1 2 14 2 0 
20 1 2 14 2 4 
79 2 4 12 0 2 
83 2 4 12 4 2 
85 2 4 16 0 2 
89 2 4 16 4 2 
133 3 -2 12 0 0 
134 3 -2 12 0 4 
144 3 -2 12 2 2 
146 3 -2 12 4 0 
147 3 -2 12 4 4 
151 3 -2 14 0 2 
155 3 -2 14 4 2 
157 3 -2 16 0 0 
158 3 -2 16 0 4 
168 3 -2 16 2 2 
170 3 -2 16 4 0 
171 3 -2 16 4 4 
31 1 2 18 2 0 
32 1 2 18 2 4 
55 1 2 22 2 0 
56 1 2 22 2 4 
91 2 4 20 0 2 
95 2 4 20 4 2 
175 3 -2 18 0 2 
179 3 -2 18 4 2 
181 3 -2 20 0 0 
182 3 -2 20 0 4 
193 3 -2 20 2 2 
195 3 -2 20 4 0 
196 3 -2 20 4 4 
205 3 -2 22 0 2 
209 3 -2 22 4 2 
424 5 -2 21.9915 0.46811 4.05588 
13 1 2 14 10 0 
14 1 2 14 10 4 
23 1 2 14 6 0 
24 1 2 14 6 4 
84 2 4 12 8 2 
90 2 4 16 8 2 
135 3 -2 12 10 2 
148 3 -2 12 6 2 
149 3 -2 12 8 0 
150 3 -2 12 8 4 
156 3 -2 14 8 2 
159 3 -2 16 10 2 
172 3 -2 16 6 2 
173 3 -2 16 8 0 
174 3 -2 16 8 4 
25 1 2 18 10 0 
26 1 2 18 10 4 
35 1 2 18 6 0 
36 1 2 18 6 4 
49 1 2 22 10 0 
50 1 2 22 10 4 
59 1 2 22 6 0 
60 1 2 22 6 4 
96 2 4 20 8 2 
180 3 -2 18 8 2 
184 3 -2 20 10 2 
197 3 -2 20 6 2 
198 3 -2 20 8 0 
199 3 -2 20 8 4 
210 3 -2 22 8 2 
282 4 4 19.4348 9.71703 4.25423 
269 4 4 15.1597 4.56235 7.90235 
275 4 4 15.2604 5.94776 9.0005 
277 4 4 16.3859 0.570892 6.83421 
281 4 4 16.641 5.04037 7.93362 
287 4 4 16.0778 4.47923 7.33603 
288 4 4 16.1344 5.7888 8.35759 
349 5 -2 16.1373 2.10672 7.15358 
358 5 -2 12.735 2.52547 8.56906 
365 5 -2 13.1956 2.29409 5.32049 
371 5 -2 17.6961 5.32551 7.71491 
373 5 -2 16.9701 2.83045 10.3372 
377 5 -2 17.7325 3.53491 8.06845 
390 5 -2 17.3228 5.07351 9.8483 
364 5 -2 16.1856 1.18827 7.15923 
263 4 4 12.4926 3.37917 8.70266 
334 5 -2 12.735 2.52547 8.56906 
336 5 -2 12.1494 3.55476 7.82732 
418 5 -2 23.7545 4.40149 4.91267 
299 4 4 21.6224 4.17465 10.7269 
300 4 4 23.0466 4.6571 9.11841 
407 5 -2 21.191 5.78453 5.5355 